CRYSTAL
PRIMVEC
  4.51   0.00   0.00
  0.00   4.51   0.00
  0.00   0.00   3.18
PRIMCOORD
6 1
77    2.2550   2.2550   1.5900
77         0        0        0
 8    3.1381   3.1381        0
 8    3.6269   0.8831   1.5900
 8    1.3719   1.3719        0
 8    0.8831   3.6269   1.5900
