CRYSTAL
PRIMVEC
  0.00   2.045   2.045
  2.045   0.00   2.045
  2.045   2.045   0.00
PRIMCOORD
1 1
47   0.000000   0.000000   0.000000
