CRYSTAL
PRIMVEC
  0.00   2.04   2.04
  2.04   0.00   2.04
  2.04   2.04   0.00
PRIMCOORD
1 1
79   0.000000   0.000000   0.000000
